LAMMPS (8 Apr 2021)
# Diffusion - Migration - Potential - Reaction Modeling
# Cycling
# 11/08/21
# Madison Morey


log 		    ${dname}/log.lammps
log 		    /projectnb/ryanlab/mmorey/RPP/results/RPP_26Mar25_constcC_constOverPot_noweightingfunc_nocsr_3240718/log.lammps
